ITEM: TIMESTEP 
0
ITEM: NUMBER OF ATOMS
50
ITEM: BOX BOUNDS pp pp pp
0	100
0	100
0	100
ITEM: ATOMS id x y z vx vy vz
0 25 50 50 -0.0114423 -0.0370943 0.0347951 
1 26 50 50 -0.489164 0.23774 -0.240772 
2 27 50 50 0.245997 -0.534378 0.299711 
3 28 50 50 -0.119432 -0.490493 -0.320822 
4 29 50 50 -0.35354 -0.315377 -0.322683 
5 30 50 50 -0.2441 -0.478316 -0.261219 
6 31 50 50 0.147147 0.240975 -0.456904 
7 32 50 50 0.424286 0.109105 0.030141 
8 33 50 50 -0.380762 0.265634 -0.292073 
9 34 50 50 -0.470914 0.0505701 0.27667 
10 35 50 50 0.150107 0.411451 0.405671 
11 36 50 50 -0.0214982 0.229866 -0.309591 
12 37 50 50 0.451386 -0.312356 -0.385704 
13 38 50 50 -0.490751 0.361676 -0.460108 
14 39 50 50 -0.0825352 -0.0013419 0.294614 
15 40 50 50 0.404815 -0.463301 0.416933 
16 41 50 50 0.117849 -0.211096 0.0923988 
17 42 50 50 0.477479 0.00576891 -0.306173 
18 43 50 50 -0.000348827 -0.287972 0.49918 
19 44 50 50 0.0831803 -0.353037 -0.414392 
20 45 50 50 0.306728 -0.442456 0.521062 
21 46 50 50 -0.23293 0.0721467 -0.297323 
22 47 50 50 0.308132 -0.0952474 0.197596 
23 48 50 50 0.265437 -0.0546577 0.122063 
24 49 50 50 -0.497587 0.256417 0.462741 
25 50 50 50 0.137717 0.441695 -0.0552193 
26 51 50 50 0.144828 -0.140232 0.474246 
27 52 50 50 0.399291 -0.513534 0.168329 
28 53 50 50 -0.139696 0.175055 0.282773 
29 54 50 50 0.291622 0.112492 -0.389122 
30 55 50 50 -0.11754 0.124608 0.189875 
31 56 50 50 -0.107957 -0.420544 -0.295034 
32 57 50 50 0.2156 -0.022888 -0.0181393 
33 58 50 50 -0.248403 0.441512 0.354339 
34 59 50 50 -0.111436 0.113743 0.0496423 
35 60 50 50 0.28213 0.147497 -0.153245 
36 61 50 50 0.0711866 0.112401 -0.164903 
37 62 50 50 0.318905 -0.354288 0.162134 
38 63 50 50 -0.212452 -0.302468 -0.288289 
39 64 50 50 0.28796 0.45668 0.031026 
40 65 50 50 -0.0924537 0.262033 -0.0685864 
41 66 50 50 -0.170306 0.407301 -0.0846696 
42 67 50 50 -0.345422 -0.0041496 0.28079 
43 68 50 50 -0.297752 0.307994 -0.182634 
44 69 50 50 -0.341302 0.285654 0.207118 
45 70 50 50 0.429779 -0.0746779 -0.392327 
46 71 50 50 0.234522 0.0957985 0.0302326 
47 72 50 50 -0.398982 0.285532 0.517369 
48 73 50 50 -0.302116 -0.360819 0.0673431 
49 74 50 50 0.0847368 0.259378 -0.308859 
ITEM: TIMESTEP 
250
ITEM: NUMBER OF ATOMS
50
ITEM: BOX BOUNDS pp pp pp
0	100
0	100
0	100
ITEM: ATOMS id x y z vx vy vz
0 25.2203 49.9847 50.0102 0.640518 0.0324848 -0.0563765 
1 26.2041 50.0582 49.8678 0.183953 -0.215799 0.0564745 
2 27.0347 49.5426 50.0229 -0.137961 -0.141902 -0.159132 
3 28.0325 49.4606 49.7874 0.449289 -0.384366 -0.120496 
4 29.019 49.5096 49.643 0.697261 -0.303374 -0.268733 
5 30.0032 49.819 49.5919 0.214332 0.128037 -0.282834 
6 31.028 49.9283 49.7431 0.193921 -0.314363 -0.000753507 
7 31.9785 50.1829 49.7137 0.156519 0.0425561 -0.334506 
8 32.9682 50.1855 50.0602 0.120914 0.129664 0.25685 
9 34.0055 50.3176 50.044 -0.0424614 0.281037 -0.304741 
10 35.0273 50.184 49.9828 0.158911 -0.0880976 -0.464793 
11 36.0864 50.1438 49.9278 -0.13613 0.107939 0.107537 
12 37.0753 50.2203 49.7318 -0.121679 0.456299 0.223577 
13 38.0492 49.9061 49.8993 -0.242317 -0.340237 0.19012 
14 39.0197 49.9024 49.9787 -0.0670723 -0.144497 -0.291426 
15 40.0066 49.8853 50.149 -0.12948 0.17846 -0.179861 
16 41.0682 49.7264 50.1369 -0.0678461 -0.175055 0.142442 
17 42.0745 49.7342 50.1698 -0.0641913 -0.392231 0.428384 
18 43.0678 49.7271 49.9507 0.202881 -0.233183 -0.343687 
19 44.0665 49.6004 50.1305 0.311129 -0.146873 0.365658 
20 45.0894 49.6825 50.037 -0.338791 -0.108395 -0.254866 
21 46.142 49.8179 50.131 0.016372 -0.360198 0.390027 
22 47.1468 49.9692 50.0465 0.110903 0.0166394 -0.071773 
23 48.1163 50.0906 50.3024 0.130604 0.206676 0.343468 
24 49.0934 50.201 50.2072 0.180135 0.0497429 -0.11167 
25 50.0745 50.1541 50.3672 0.154955 -0.257334 0.579601 
26 51.079 49.9587 50.2611 -0.199248 0.139417 -0.00266999 
27 52.0388 49.8624 50.3234 0.205692 0.292102 0.23844 
28 53.039 49.9118 50.0539 -0.101607 -0.261813 -0.0792171 
29 54.0446 50.1109 50.0362 0.117255 -0.0488386 0.352669 
30 55.0168 49.9326 49.8151 -0.0481461 -0.1654 -0.352134 
31 56.0264 49.9109 49.9614 -0.182917 0.265485 0.172208 
32 57.0363 50.0146 50.0284 -0.0158308 0.0441474 0.062393 
33 58.04 50.1896 50.1192 0.459456 -0.118057 -0.178039 
34 59.0155 50.2576 50.0753 0.138006 0.24557 0.0144807 
35 60.0015 50.1486 49.9325 -0.0332394 0.0675022 0.122463 
36 60.9907 49.9708 49.9265 -0.309793 -0.173619 0.0794769 
37 61.948 49.8006 49.9091 -0.17712 0.137215 -0.367907 
38 62.9836 49.918 49.9248 -0.0365897 0.258981 0.20895 
39 63.9683 50.1889 49.8831 0.312893 -0.189796 -0.214732 
40 64.9405 50.4341 49.9532 -0.460214 0.381249 -0.0292753 
41 65.9115 50.3016 50.0287 -0.136818 0.0147727 0.169303 
42 66.9145 50.27 50.0494 -0.129146 0.484826 -0.249173 
43 67.8989 50.254 50.0443 -0.0664533 0.084174 0.251696 
44 68.8658 50.2445 49.9497 -0.48563 0.17749 -0.186059 
45 69.8206 50.0885 49.8418 -0.464509 0.107185 -0.0842574 
46 70.806 50.1306 50.0483 -0.0904919 0.126364 0.0496062 
47 71.7641 50.1388 50.3985 0.078228 -0.0172045 0.269702 
48 72.6875 49.7996 50.1385 -0.386746 -0.00900183 0.154889 
49 73.4641 50.2281 49.6646 -0.561697 0.133616 -0.241304 
ITEM: TIMESTEP 
500
ITEM: NUMBER OF ATOMS
50
ITEM: BOX BOUNDS pp pp pp
0	100
0	100
0	100
ITEM: ATOMS id x y z vx vy vz
0 25.7854 50.0202 49.9689 0.216726 0.113107 -0.0242333 
1 26.7459 49.7166 49.9262 0.575066 -0.334321 0.0814698 
2 27.6292 49.3725 49.5992 0.368891 -0.112766 -0.397117 
3 28.5679 49.0754 49.7284 0.541669 -0.370068 -0.0371369 
4 29.5339 49.2821 49.3833 0.288379 -0.23212 -0.194694 
5 30.4185 49.8256 49.4035 0.175637 0.0582956 -0.202171 
6 31.4258 49.7585 49.5431 0.750889 -0.10113 -0.106462 
7 32.3851 49.9966 49.7656 0.422053 -0.11103 0.0730288 
8 33.2306 50.4799 49.9108 0.672062 0.107381 -0.314413 
9 34.2388 50.3236 49.634 0.113866 0.0192459 -0.213494 
10 35.2488 50.2898 49.6076 0.152275 0.171883 -0.171601 
11 36.1994 50.3379 49.8778 0.797989 -0.0719238 0.0814776 
12 37.0988 49.9994 50.1951 0.117313 -0.204087 0.0190349 
13 38.0901 50.1516 49.9844 0.0222455 0.237282 0.186227 
14 39.0667 49.8372 49.9863 0.226305 0.0242609 0.0814623 
15 40.0767 49.6101 49.8992 -0.0616674 -0.219237 0.0145349 
16 41.0749 49.6981 50.0907 0.138731 -0.190414 -0.31565 
17 42.0766 49.4791 50.1051 0.130117 0.00814176 -0.00592488 
18 43.0628 49.4189 50.3549 0.249723 0.0417482 0.0548974 
19 44.0233 49.562 50.089 -0.0550049 -0.219643 0.287485 
20 45.036 49.6029 50.2147 -0.144658 -0.0151725 0.134345 
21 46.0444 49.6994 50.2109 0.26225 0.286478 0.363547 
22 47.0428 49.8631 50.4465 -0.539612 -0.213037 -0.212914 
23 48.0411 50.0446 50.2218 -0.26792 -0.404376 0.351049 
24 49.0126 49.996 50.5996 -0.21685 -0.258806 0.129278 
25 50.0153 49.9934 50.412 -0.0615379 0.0685422 -0.0607228 
26 51.0276 50.1181 50.5914 0.179823 0.0693159 -0.0477622 
27 52.0058 50.1419 50.2394 -0.372241 -0.0440074 0.177451 
28 53.0611 49.9067 50.2896 -0.143799 0.20255 0.192807 
29 54.0394 49.7289 50.0928 -0.270352 -0.216968 -0.0939401 
30 55.0083 49.9634 49.9995 -0.19751 0.0822412 0.492558 
31 55.9849 50.1922 49.9947 0.407546 0.0902588 -0.0461658 
32 56.9987 50.1467 50.0503 -0.388905 0.158663 -0.0675214 
33 57.9926 50.1338 49.9444 -0.271336 0.0546916 -0.075854 
34 58.9792 50.2113 49.9817 -0.0565686 -0.241032 -0.163608 
35 59.9785 50.1401 50.1133 -0.0251898 -0.0663401 0.212828 
36 60.9435 49.9817 49.8731 -0.289287 0.122011 -0.131093 
37 61.8726 50.1161 49.792 -0.347986 0.299272 0.0475574 
38 62.8096 50.202 49.8874 -0.213311 0.255414 -0.120633 
39 63.7702 50.0587 49.8077 -0.244571 -0.290969 -0.0697822 
40 64.6559 50.5264 49.9406 0.0360611 0.146277 0.0311869 
41 65.6108 50.588 50.0522 -0.156586 0.326402 -0.0145163 
42 66.6187 50.6471 50.0009 -0.347491 0.261119 0.0402269 
43 67.6033 50.5213 50.0356 -0.157102 0.279035 -0.0927182 
44 68.5604 50.3401 49.8718 -0.419992 -0.0230001 -0.0554086 
45 69.5305 50.3419 49.9153 -0.245742 0.296365 0.0410562 
46 70.4718 50.2485 50.1498 -0.198311 0.0774707 0.0910204 
47 71.3658 50.1175 50.5088 -0.302174 -0.0266793 0.147688 
48 72.2827 49.8638 50.266 -0.229457 -0.00626078 0.153073 
49 72.657 50.3292 49.4431 -0.620453 0.115938 -0.249753 
ITEM: TIMESTEP 
750
ITEM: NUMBER OF ATOMS
50
ITEM: BOX BOUNDS pp pp pp
0	100
0	100
0	100
ITEM: ATOMS id x y z vx vy vz
0 26.5674 49.9917 49.9288 0.712293 -0.0993826 -0.0343534 
1 27.3045 49.3309 49.8624 0.393333 -0.228907 -0.0837025 
2 28.1905 49.2048 49.3891 0.696761 -0.274525 -0.10888 
3 29.0997 48.8384 49.4179 0.127693 -0.0188528 -0.264593 
4 30.0099 49.2757 49.3138 0.52023 -0.0608663 -0.0817676 
5 31.0489 49.4216 49.241 0.346785 -0.27737 -0.113133 
6 31.9333 49.8756 49.3925 0.209964 0.0299782 -0.195794 
7 32.8727 49.9778 49.8402 0.624827 0.0376481 0.100648 
8 33.7298 50.362 49.4189 0.146813 -0.107698 -0.339713 
9 34.7275 50.3516 49.3675 0.537246 0.015334 -0.244912 
10 35.6816 50.5624 49.5956 0.488953 0.199002 0.0129946 
11 36.6121 50.1911 49.8114 0.169192 -0.0408717 -0.106111 
12 37.4929 49.8098 50.1441 0.285129 -0.260039 -0.0167208 
13 38.4096 50.2104 50.2791 0.472401 0.080117 0.237978 
14 39.343 49.9132 50.0408 0.71394 -0.14341 0.0868836 
15 40.2796 49.5307 50.0596 0.453551 -0.00702931 -0.21083 
16 41.2045 49.3073 49.6967 -0.176588 -0.0251263 0.259777 
17 42.1084 49.546 50.1484 0.240219 -0.121191 -0.112827 
18 43.0847 49.4939 50.2814 0.17778 0.0307668 -0.0899327 
19 44.0706 49.3891 50.4564 0.0171091 0.171917 0.18625 
20 45.0844 49.6416 50.4301 -0.173607 -0.00552913 0.292513 
21 46.0579 49.8492 50.4967 -0.133361 -0.124193 0.0318679 
22 47.0461 49.7112 50.4068 0.0065964 -0.0926438 0.292614 
23 47.9455 49.5482 50.6976 0.0242903 -0.278003 0.0244428 
24 48.9168 49.7779 50.4768 0.161625 -0.0160605 0.148033 
25 49.8502 50.0396 50.5352 -0.113025 -0.203607 -0.230425 
26 50.7889 50.0488 50.3361 -0.346705 -0.14622 0.153693 
27 51.7818 49.9502 50.5714 -0.093436 0.0220044 -0.0873553 
28 52.777 50.0877 50.3165 0.143212 -0.110287 0.0840015 
29 53.8048 50.0028 50.2284 -0.441823 0.47818 0.448034 
30 54.8141 50.0278 50.4209 -0.578721 0.0447946 -0.0219418 
31 55.7422 50.0874 50.1088 -0.412066 -0.168261 0.296956 
32 56.7047 50.2633 49.9001 -0.439784 0.0906382 -0.200648 
33 57.6532 50.1847 49.8897 -0.129475 0.0140408 -0.0361507 
34 58.626 50.0014 50.0099 -0.698006 -0.11933 0.192954 
35 59.641 49.9974 49.9996 -0.224908 -0.256046 -0.337714 
36 60.6094 50.2717 49.931 -0.0921816 0.403534 0.178893 
37 61.589 50.3869 49.8126 -0.0173926 0.183867 0.0147176 
38 62.5732 50.347 49.7055 0.0315174 -0.0542875 -0.14866 
39 63.5529 50.1232 49.8107 -0.466934 0.379421 0.0294608 
40 64.4478 50.5392 49.9379 -0.220593 -0.170455 0.0026424 
41 65.3334 50.9013 50.001 -0.188875 0.259469 -0.136068 
42 66.3047 50.9466 50.0435 -0.0336336 0.179842 0.0860381 
43 67.2548 50.7969 49.911 -0.535146 0.17709 -0.169266 
44 68.2048 50.499 49.8619 -0.216252 0.276726 0.0825761 
45 69.1712 50.57 49.972 -0.212678 0.0717165 0.104108 
46 70.1356 50.3788 50.2669 -0.482557 0.149883 0.051947 
47 71.0471 50.0852 50.6001 -0.272314 -0.0289676 0.0075406 
48 71.9696 50.0021 50.2767 -0.299694 0.120657 0.0621412 
49 71.8009 50.3492 49.3591 -0.701707 0.022533 -0.0982086 
ITEM: TIMESTEP 
1000
ITEM: NUMBER OF ATOMS
50
ITEM: BOX BOUNDS pp pp pp
0	100
0	100
0	100
ITEM: ATOMS id x y z vx vy vz
0 27.4156 49.9056 49.8885 0.721884 -0.149923 -0.0463612 
1 27.8692 48.9995 49.7415 0.699396 -0.186116 -0.24836 
2 28.706 48.9979 49.2643 0.278015 -0.199613 0.0247813 
3 29.711 48.7556 49.0559 0.445732 0.0172028 -0.208005 
4 30.6238 49.1296 49.229 0.258697 -0.189855 -0.106025 
5 31.6209 49.2072 49.1413 0.452436 -0.200155 -0.102434 
6 32.4194 49.7799 49.4131 0.521059 0.00806587 0.0243507 
7 33.3572 50.1603 49.5453 0.594461 0.021545 -0.38064 
8 34.2793 50.0363 49.0809 0.545564 0.113518 -0.0608081 
9 35.1516 50.5534 49.1853 0.256188 -0.0976762 -0.0711304 
10 36.1047 50.6268 49.5397 0.117771 -0.064056 -0.166374 
11 36.9495 50.0687 49.7716 0.267516 -0.00147258 -0.0407475 
12 37.9176 49.7928 50.0407 0.321383 -0.00335811 -0.0416074 
13 38.7845 50.0793 50.5239 0.516409 -0.136258 0.0734921 
14 39.7178 49.9659 50.2031 0.109166 0.0429493 0.202959 
15 40.5783 49.5124 50.001 0.101543 0.0333112 -0.0129472 
16 41.4185 49.063 49.7195 0.386905 -0.142562 0.0459438 
17 42.2918 49.4401 50.0083 0.471793 -0.117265 -0.124939 
18 43.284 49.5448 50.174 -0.0637387 -0.0411797 0.118567 
19 44.0464 49.5023 50.7517 -0.17262 0.142794 -0.0120056 
20 45.0493 49.6721 50.8084 0.229852 0.0226601 0.185788 
21 46.0289 49.765 50.5276 0.199249 -0.146866 0.266422 
22 47.0209 49.6178 50.717 0.179299 -0.495741 0.236981 
23 47.9216 49.1071 50.8354 -0.274033 0.497462 -0.169607 
24 48.7552 49.6412 50.5794 0.226333 -0.201383 0.109605 
25 49.7024 49.9325 50.4064 -0.0689374 -0.446109 0.0215302 
26 50.7024 49.9002 50.4067 -0.412907 0.00804296 0.176944 
27 51.7043 49.9397 50.4421 -0.481837 -0.104957 -0.29116 
28 52.6947 50.0663 50.5177 -0.38475 0.0636048 0.28215 
29 53.5713 50.4372 50.6445 -0.0237354 0.281405 0.309723 
30 54.4791 50.1519 50.4205 -0.171608 0.155756 -0.0320598 
31 55.4755 50.0138 50.3286 -0.192497 -0.0481009 0.174403 
32 56.3543 50.1782 49.8638 0.039662 -0.126808 0.0215174 
33 57.3226 50.1109 49.9623 -0.472894 -0.0737684 0.0673299 
34 58.3643 50.0067 49.9755 -0.279103 0.0505366 -0.0842069 
35 59.3414 50.1004 49.7577 -0.24422 0.14319 -0.171131 
36 60.2547 50.425 49.9761 -0.512528 0.0644605 0.0519365 
37 61.2021 50.4797 49.8181 -0.212521 0.0584731 -0.0988065 
38 62.1643 50.3794 49.7495 -0.216719 -0.0696125 0.231772 
39 63.1344 50.5319 49.7804 -0.234741 0.51877 -0.111257 
40 64.0845 50.5595 49.887 -0.133086 0.199311 -0.0757745 
41 64.9703 51.0105 49.933 -0.437573 -0.190705 0.0106396 
42 65.9633 51.2112 50.0493 -0.167522 0.150023 -0.176047 
43 66.9234 50.9906 49.785 -0.153234 0.110909 0.0907568 
44 67.8736 50.8259 49.9124 -0.159007 0.380286 0.0357814 
45 68.804 50.7016 50.0779 -0.511708 0.033562 0.148262 
46 69.7441 50.5007 50.3829 -0.385784 0.0490542 0.0286135 
47 70.6332 50.0986 50.5837 -0.75274 0.106817 0.00567243 
48 71.5414 50.2015 50.1975 -0.1747 0.19196 -0.177969 
49 70.9713 50.3215 49.3952 -0.645569 -0.0321309 0.0644802 
ITEM: TIMESTEP 
1250
ITEM: NUMBER OF ATOMS
50
ITEM: BOX BOUNDS pp pp pp
0	100
0	100
0	100
ITEM: ATOMS id x y z vx vy vz
0 28.3193 49.728 49.8301 0.735955 -0.304221 -0.0809896 
1 28.4142 48.7518 49.6205 0.726842 -0.0311365 -0.229887 
2 29.3158 48.7587 49.1279 0.439535 -0.18931 -0.0535681 
3 30.2178 48.7478 48.7444 0.351216 -0.000247616 -0.0585098 
4 31.2015 48.8866 49.0811 0.20729 -0.219378 -0.198866 
5 32.1975 49.1383 49.1423 0.771636 0.139008 0.110955 
6 32.9949 49.6663 49.3984 0.530722 -0.0463261 -0.295863 
7 33.8284 50.1426 49.0763 0.129538 -0.316524 -0.206254 
8 34.7747 50.0142 48.9178 0.353208 0.17805 -0.106472 
9 35.549 50.6362 49.0393 0.732907 -0.178019 0.0427917 
10 36.5004 50.4469 49.3961 0.33933 -0.203708 -0.0869965 
11 37.3873 50.1199 49.7453 0.130627 0.162436 -0.164366 
12 38.3099 49.8901 50.0399 0.0175964 0.136073 -0.0468163 
13 39.1014 49.8493 50.6575 0.445373 -0.134265 0.0447068 
14 40.0974 50.0293 50.397 0.351641 -0.15968 0.049 
15 40.8162 49.4819 49.9287 0.208222 -0.0782963 0.0449538 
16 41.6231 48.8621 49.7559 0.361237 0.295662 0.0986011 
17 42.5381 49.2879 49.8074 0.0726498 -0.265489 -0.0443938 
18 43.4414 49.5777 50.1864 0.130719 -0.0210177 0.263608 
19 44.0935 49.6741 50.9802 -0.16952 0.0880076 -0.173356 
20 45.074 49.7115 51.0211 0.0504855 0.0893343 -0.0215685 
21 46.0319 49.6249 50.8646 -0.0332344 -0.326642 0.624931 
22 46.9178 49.2777 50.9188 0.0231843 -0.177715 -0.144376 
23 47.8955 49.1905 50.8582 0.266183 0.327214 0.0900816 
24 48.8451 49.3557 50.6876 -0.0196254 -0.326487 -0.0953313 
25 49.7491 49.6125 50.3674 -0.199726 -0.313276 0.267985 
26 50.6735 49.8937 50.5581 -0.0173588 -0.0515315 -0.0203278 
27 51.6361 49.8959 50.2093 0.0115276 0.0654353 0.0241946 
28 52.3293 50.2945 50.8451 -0.00518178 0.215768 0.139401 
29 53.3025 50.4672 50.8485 -0.229671 -0.169407 -0.0770929 
30 54.2383 50.3951 50.484 -0.237834 0.0907308 0.266195 
31 55.1834 50.0281 50.4527 -0.492845 0.190384 -0.0127068 
32 56.0652 50.0087 49.9737 -0.393765 -0.149406 0.209475 
33 57.0309 49.9956 50.0534 -0.588448 -0.133767 0.141532 
34 57.9822 50.0961 49.8462 -0.210912 0.075156 -0.136987 
35 58.9524 50.2707 49.6071 -0.243361 0.142757 -0.222058 
36 59.8688 50.5089 49.9342 0.258057 0.102244 -0.0405549 
37 60.8352 50.4691 49.816 -0.381769 -0.032998 0.0904244 
38 61.8519 50.5138 49.9367 -0.459974 0.179749 0.114148 
39 62.7231 50.9498 49.7062 -0.232417 0.24939 -0.0290256 
40 63.6783 50.7561 49.7892 -0.619333 0.203861 -0.119592 
41 64.6454 50.975 49.9456 -0.146449 0.0197329 0.0454934 
42 65.5809 51.3144 49.8499 -0.113787 -0.099039 -0.247717 
43 66.562 51.263 49.838 -0.458625 0.42884 0.134655 
44 67.4989 51.1774 49.9304 -0.0220499 0.0122399 0.105642 
45 68.3774 50.8244 50.2216 -0.323514 0.239927 0.0903328 
46 69.3061 50.5877 50.4617 -0.353553 -0.0721362 0.0172727 
47 70.198 50.1696 50.5332 -0.424215 0.326576 -0.251302 
48 71.0318 50.4025 50.0437 -0.414518 0.117105 0.182081 
49 70.2134 50.2804 49.5253 -0.853993 -0.0756581 -0.0334837 
ITEM: TIMESTEP 
1500
ITEM: NUMBER OF ATOMS
50
ITEM: BOX BOUNDS pp pp pp
0	100
0	100
0	100
ITEM: ATOMS id x y z vx vy vz
0 29.2139 49.51 49.7706 0.717851 -0.112679 -0.0241159 
1 29.0532 48.5588 49.4531 0.395517 -0.206634 -0.0944238 
2 29.9349 48.5147 48.9769 0.838241 -0.138156 -0.293327 
3 30.8444 48.7331 48.6053 0.72248 -0.131647 0.115309 
4 31.7843 48.7036 48.8325 0.315834 0.0703546 -0.166474 
5 32.6023 49.0638 49.1961 0.132441 -0.166161 -0.0969241 
6 33.5227 49.5406 49.255 0.389866 -0.10298 -0.206804 
7 34.2067 50.0089 48.6906 0.855673 -0.11929 -0.206351 
8 35.2194 50.1052 48.725 -0.0346616 0.254261 -0.126608 
9 36.0408 50.633 48.8996 0.707704 -0.519926 0.086154 
10 36.914 50.288 49.2676 0.38407 0.143363 -0.102599 
11 37.8417 50.1914 49.6635 0.051044 -0.00141012 -0.108737 
12 38.6748 49.9793 50.1919 0.201185 0.0448272 0.0712677 
13 39.4994 49.7181 50.6261 -0.0234467 0.0414632 -0.165536 
14 40.461 49.902 50.5498 0.198329 -0.012301 0.250973 
15 41.0649 49.3956 49.9561 0.128655 -0.0833836 -0.0254312 
16 41.8957 48.9797 49.7727 0.504668 0.00360794 -0.114018 
17 42.8812 49.0709 49.7521 0.247637 -0.205094 -0.0328105 
18 43.5012 49.5321 50.3135 -0.148727 -0.12628 -0.0246424 
19 44.1682 49.8189 50.978 0.314723 0.238006 0.0911057 
20 45.1353 49.734 51.1521 0.270113 -0.0703841 0.196642 
21 46.0164 49.29 51.3292 0.103309 -0.344943 0.209033 
22 46.9291 49.2092 51.0051 -0.0910831 0.164024 0.251869 
23 47.902 49.2581 50.8915 -0.205107 -0.0686645 -0.075865 
24 48.8294 49.1046 50.6782 -0.217377 -0.148106 -0.00937831 
25 49.7838 49.3219 50.6292 0.0309096 -0.294738 0.379211 
26 50.6517 49.7555 50.4566 -0.252073 -0.186506 -0.169698 
27 51.5921 49.9868 50.2694 0.237677 0.115171 -0.105452 
28 52.0013 50.5023 51.0296 -0.287203 0.241899 0.278397 
29 53.0059 50.3936 50.8776 -0.405966 -0.0625062 0.0504474 
30 53.9882 50.547 50.7221 -0.0181786 0.171122 0.212146 
31 54.8604 50.1485 50.4494 -0.065034 0.0646997 -0.113855 
32 55.7447 49.8481 50.1904 0.121972 -0.11051 0.216701 
33 56.7159 49.9073 50.0826 -0.413918 -0.016706 -0.0720519 
34 57.6076 50.1885 49.7245 -0.307856 0.0677542 -0.0407915 
35 58.5882 50.452 49.5609 -0.399651 0.104955 0.0604763 
36 59.5384 50.5525 49.7968 -0.304504 -0.00759075 -0.161026 
37 60.5329 50.4239 49.8858 -0.432261 -0.0554263 0.0536052 
38 61.4697 50.7882 50.0459 -0.213298 0.26937 0.07746 
39 62.3234 51.2197 49.6929 -0.36731 0.197681 0.00472546 
40 63.3037 51.0456 49.7263 0.178775 0.242927 0.0383984 
41 64.282 51.0209 49.8516 -0.310608 0.171784 -0.296667 
42 65.2376 51.2752 49.7162 -0.528844 -0.114048 0.102751 
43 66.1166 51.5747 49.8693 -0.177972 0.0822263 -0.108247 
44 67.0198 51.3886 50.0587 -0.469818 0.149049 0.340043 
45 67.9685 51.0599 50.2898 -0.363839 0.236105 -0.0727135 
46 68.8055 50.6095 50.5111 -0.442131 -0.00542517 -0.0381547 
47 69.7536 50.3512 50.5399 -0.497673 0.265871 0.246962 
48 70.4497 50.538 49.8725 -0.437319 0.0917132 -0.142837 
49 69.5219 50.2572 49.6187 -0.632815 -0.020738 -0.138138 
ITEM: TIMESTEP 
1750
ITEM: NUMBER OF ATOMS
50
ITEM: BOX BOUNDS pp pp pp
0	100
0	100
0	100
ITEM: ATOMS id x y z vx vy vz
0 30.0749 49.2495 49.7085 0.724464 -0.106635 0.00506755 
1 29.7147 48.423 49.3015 0.508661 -0.205986 -0.18047 
2 30.5459 48.2754 48.7947 0.569558 -0.153627 -0.174194 
3 31.405 48.6418 48.4745 0.438909 -0.121614 -0.0659862 
4 32.4176 48.6088 48.6169 0.302913 -0.125679 -0.270634 
5 33.1189 48.9947 49.2569 0.505368 -0.0159581 0.163801 
6 33.9638 49.4022 48.9752 0.550996 0.0284595 -0.481401 
7 34.6309 49.8189 48.4274 0.457438 -0.0942403 0.0812466 
8 35.5277 50.3211 48.4873 0.698076 0.131779 -0.062752 
9 36.477 50.4112 48.7482 0.433367 -0.478392 0.025483 
10 37.424 50.3391 49.1274 0.448111 0.067328 0.0446675 
11 38.242 50.1914 49.6215 -0.0348293 0.0419762 0.0604653 
12 38.9613 50.0527 50.3067 -0.0860349 0.0471504 -0.429582 
13 39.8679 49.6292 50.6586 0.354914 0.078576 -0.0270261 
14 40.8499 49.7955 50.7224 0.153651 -0.254977 -0.0460477 
15 41.3227 49.2952 50.0235 0.654445 -0.112929 0.0249732 
16 42.2323 49.0478 49.6496 0.0845331 0.167315 0.150082 
17 43.2213 48.8794 49.7699 -0.0370182 -0.0208085 0.0771172 
18 43.6417 49.4773 50.4907 -0.072969 -0.200219 -0.00823309 
19 44.4469 49.9623 50.8656 0.147841 0.284163 -0.212347 
20 45.2197 49.6203 51.4208 -0.0608327 -0.0357364 0.36304 
21 46.0432 49.0446 51.5357 0.141779 -0.329073 0.182763 
22 47.0138 49.2522 51.3097 -0.0390745 0.10138 0.516829 
23 47.8379 49.0821 50.7767 0.0149962 -0.323441 -0.414722 
24 48.82 49.1229 50.7964 0.0239801 0.163151 0.175301 
25 49.7948 49.1054 50.8137 0.147206 -0.247695 0.17733 
26 50.5757 49.4804 50.3595 0.121556 -0.192042 -0.157708 
27 51.3462 50.0751 50.4438 -0.288896 0.076405 0.187482 
28 51.8241 50.6196 51.1109 -0.00487735 0.0525061 0.00679301 
29 52.7716 50.4465 50.9152 -0.334167 0.0755867 0.0548885 
30 53.7566 50.5112 50.9226 -0.304807 -0.0159592 0.24854 
31 54.6085 50.2852 50.4332 -0.104403 0.117466 -0.121589 
32 55.4622 49.8024 50.4822 -0.0763484 -0.0545703 0.21932 
33 56.3774 49.8869 49.9989 -0.125709 0.0950591 -0.132799 
34 57.2748 50.2741 49.6777 -0.125968 0.078749 0.0491457 
35 58.2413 50.5897 49.6204 -0.42962 -0.0290875 0.0711556 
36 59.2119 50.4973 49.6425 -0.294358 -0.102327 -0.0297887 
37 60.1548 50.5844 49.9621 -0.24468 0.421284 -0.000266145 
38 61.0267 51.0244 50 -0.2582 0.13618 -0.247742 
39 61.9157 51.3499 49.7862 -0.246648 -0.122255 0.24773 
40 62.877 51.3446 49.7011 -0.361437 0.197972 -0.0270472 
41 63.8762 51.1509 49.6249 -0.752396 0.210701 -0.201957 
42 64.8666 51.2863 49.7197 -0.373776 0.0112668 0.0119862 
43 65.776 51.66 49.8309 -0.374835 0.0133828 -0.10605 
44 66.6018 51.6236 50.3441 -0.407621 0.334607 0.314715 
45 67.539 51.2891 50.292 -0.177763 0.122946 0.00807035 
46 68.3127 50.6374 50.477 -0.727924 -0.0494732 -0.140524 
47 69.2568 50.6754 50.7078 0.102839 0.274924 0.0809592 
48 69.6964 50.5982 49.7892 -0.668497 0.0647825 0.10225 
49 68.8341 50.2634 49.4784 -0.571911 -0.00237282 -0.112335 
ITEM: TIMESTEP 
2000
ITEM: NUMBER OF ATOMS
50
ITEM: BOX BOUNDS pp pp pp
0	100
0	100
0	100
ITEM: ATOMS id x y z vx vy vz
0 30.917 48.9772 49.642 0.666254 -0.243597 -0.0714135 
1 30.3805 48.3066 49.1662 0.498581 -0.0637617 -0.06863 
2 31.2079 48.0473 48.5938 0.641192 -0.146957 -0.19965 
3 32.0613 48.5232 48.3571 0.468527 -0.134004 -0.0789007 
4 33.0293 48.5961 48.5053 0.513958 0.011386 -0.0519233 
5 33.7065 48.9348 49.1482 0.510077 -0.0314203 -0.155467 
6 34.4149 49.3104 48.5501 0.524451 0.0229139 -0.379068 
7 35.2983 49.7853 48.4265 0.324367 -0.128392 0.0726737 
8 36.0873 50.3599 48.3623 0.585554 -0.0854986 -0.0328505 
9 36.9521 49.9642 48.7029 0.727201 0.0506279 0.0722621 
10 37.7207 50.4174 49.0214 -0.0265677 -0.39455 0.0592542 
11 38.4398 50.2404 49.6661 0.236765 0.1129 -0.141228 
12 39.2822 49.9652 50.1505 0.207149 -0.137931 -0.0794692 
13 40.0997 49.7872 50.5696 0.433062 0.193998 -0.160405 
14 41.052 49.5797 50.7914 -0.0293268 -0.329156 -0.419623 
15 41.7142 49.2048 50.1426 0.140189 0.140324 0.366147 
16 42.5801 49.168 49.6006 -0.00743159 0.145377 0.0285229 
17 43.4753 48.8166 49.9176 0.294648 -0.141165 0.10555 
18 43.8649 49.4328 50.5962 0.272938 0.0459148 0.144757 
19 44.7301 49.8857 50.8037 0.140451 -0.0909173 -0.0747286 
20 45.1898 49.4107 51.5856 0.174205 -0.237798 0.151305 
21 46.1411 49.1415 51.6387 0.0450117 0.152359 0.0822148 
22 47.1242 49.0688 51.5497 0.0112045 -0.203631 0.0125318 
23 47.7444 48.9312 50.8107 0.143772 0.0364099 0.326405 
24 48.7181 49.1635 51.0072 0.0680008 -0.245472 -0.0452239 
25 49.7178 48.9378 50.8089 -0.243695 0.0917597 -0.105853 
26 50.6422 49.1879 50.3458 -0.112084 0.156231 0.337829 
27 50.9609 50.1344 50.6538 -0.0485933 -0.0818873 0.304094 
28 51.6329 50.727 51.1302 -0.417686 -0.276705 -0.315404 
29 52.6096 50.544 50.9845 0.00890434 0.08994 0.122008 
30 53.6197 50.4089 51.0634 -0.145427 -0.0552884 -0.0655791 
31 54.4475 50.3643 50.468 -0.14766 -0.0342563 0.219482 
32 55.3012 49.8859 50.6328 -0.24457 0.16992 -0.000576167 
33 56.0236 49.9837 49.9436 -0.0524106 0.18338 -0.0220769 
34 56.9339 50.3136 49.7433 -0.284666 0.0436169 0.100246 
35 57.8743 50.5984 49.6761 -0.13609 -0.245297 0.00634359 
36 58.8257 50.4463 49.6292 -0.538657 0.19949 0.166733 
37 59.6616 50.9003 49.902 -0.438726 0.219296 -0.221838 
38 60.5964 51.1926 49.9001 -0.221844 0.14006 -0.0297611 
39 61.5682 51.3995 49.9225 -0.284053 0.00230529 0.0249812 
40 62.4979 51.5784 49.6801 -0.28968 0.0565418 -0.0118358 
41 63.4777 51.403 49.418 -0.0600429 0.288186 0.0718115 
42 64.4348 51.3721 49.7079 -0.562892 0.170732 -0.129605 
43 65.3653 51.6072 49.9295 -0.468245 -0.0798398 0.194404 
44 66.1944 51.8621 50.4248 -0.0231552 -0.120816 -0.135524 
45 67.1055 51.4162 50.4079 -0.712475 0.192334 0.124152 
46 67.8592 50.7986 50.3979 -0.209065 0.36916 0.0388285 
47 68.7166 50.9913 50.7694 -0.698997 0.193503 0.0255607 
48 68.8854 50.6662 49.8098 -0.617558 0.0520971 -0.0317784 
49 68.1157 50.2618 49.3444 -0.614863 -0.022425 -0.129686 
ITEM: TIMESTEP 
2250
ITEM: NUMBER OF ATOMS
50
ITEM: BOX BOUNDS pp pp pp
0	100
0	100
0	100
ITEM: ATOMS id x y z vx vy vz
0 31.761 48.678 49.5484 0.59195 -0.30915 -0.148032 
1 31.097 48.177 49.0016 0.665965 -0.0445096 -0.0711104 
2 31.8601 47.885 48.4423 0.487923 -0.131652 -0.0997413 
3 32.6802 48.3798 48.2388 0.516514 -0.103959 -0.10622 
4 33.6363 48.5872 48.4079 0.449526 -0.0228625 -0.0905465 
5 34.4457 48.9464 48.9486 0.670468 0.0528651 -0.207054 
6 34.9834 49.2914 48.1377 0.459536 -0.0175133 -0.272967 
7 35.8087 49.6923 48.4892 0.509333 0.0043182 0.0208674 
8 36.6093 50.2611 48.2751 0.14922 -0.094946 -0.088179 
9 37.3812 49.656 48.5911 0.321177 -0.498402 -0.163089 
10 37.9545 50.3426 49.0584 0.233113 0.114764 0.109431 
11 38.7553 50.2987 49.5868 -0.193059 0.205758 -0.348939 
12 39.5349 49.9554 50.0697 0.154824 -0.0519368 0.00653673 
13 40.4251 49.9134 50.4713 0.409736 0.228444 0.118065 
14 41.1994 49.3084 50.643 0.206521 -0.402587 0.0129402 
15 42.1497 49.201 50.3386 0.364925 -0.0676148 0.365384 
16 42.8796 49.2266 49.6929 0.486472 0.0961068 -0.217367 
17 43.6633 48.7805 50.0065 0.262892 -0.0401116 0.140779 
18 44.0973 49.3902 50.7097 0.157996 -0.0915675 0.0332466 
19 45.0575 49.7663 50.8365 0.243036 0.00543139 -0.0884742 
20 45.2181 49.2303 51.6534 0.112159 -0.227892 0.168667 
21 46.1849 49.27 51.7682 -0.00818413 0.108132 0.0956108 
22 47.0503 48.8556 51.7851 -0.290588 -0.18952 0.393994 
23 47.7106 48.8958 51.0002 -0.482894 -0.00492101 0.0469941 
24 48.6995 48.882 50.9988 -0.218284 -0.326636 0.103345 
25 49.6199 48.9572 50.6778 0.0732192 -0.0479863 -0.219704 
26 50.5782 49.1327 50.6201 0.559833 -0.0301057 0.107218 
27 50.7718 50.0756 50.8725 -0.188613 0.00315527 0.183546 
28 51.5302 50.6748 50.9708 -0.104741 0.019095 -0.157895 
29 52.4578 50.6777 51.1564 -0.152601 0.16644 0.230805 
30 53.3794 50.3729 51.0728 -0.124035 -0.036944 -0.00740883 
31 54.2216 50.4165 50.6099 -0.147498 0.0653111 0.0794289 
32 55.0777 49.9549 50.7605 -0.175933 -0.0126609 0.215114 
33 55.6169 50.0711 49.9473 -0.391876 0.0509343 -0.0614879 
34 56.5749 50.3919 49.7752 -0.354816 0.0920347 0.00360761 
35 57.5517 50.4975 49.6814 -0.239875 -0.117521 -0.0256108 
36 58.5273 50.5375 49.712 -0.0677972 0.111849 0.0913508 
37 59.2794 51.2131 49.7299 0.459247 0.380591 -0.0675516 
38 60.2486 51.3637 49.8681 -0.367754 0.0583181 -0.00985915 
39 61.226 51.4562 49.9554 -0.464419 0.170397 -0.268248 
40 62.1276 51.6813 49.6574 -0.548234 -0.101432 0.059375 
41 63.0651 51.7269 49.3783 -0.512361 0.248776 0.135798 
42 63.9994 51.5328 49.6215 -0.204991 0.176996 -0.0412639 
43 64.8687 51.551 50.1241 -0.419753 0.0158924 0.118098 
44 65.7035 52.0191 50.3448 -0.714466 0.144305 -0.152758 
45 66.5756 51.5734 50.5788 -0.192809 -0.00590175 0.170515 
46 67.3686 51.0046 50.3434 -0.631145 0.346585 0.250716 
47 68.2438 51.2358 50.7273 -0.553001 0.0820736 -0.243148 
48 68.0959 50.7216 49.8664 -0.444263 -0.113565 -0.196458 
49 67.4477 50.2891 49.248 -0.351593 0.143327 0.0916812 
ITEM: TIMESTEP 
2500
ITEM: NUMBER OF ATOMS
50
ITEM: BOX BOUNDS pp pp pp
0	100
0	100
0	100
ITEM: ATOMS id x y z vx vy vz
0 32.5817 48.3603 49.4394 0.506109 -0.305629 -0.185967 
1 31.7835 48.0747 48.888 0.701117 -0.0355234 0.00849494 
2 32.5354 47.7077 48.2717 0.537402 -0.132284 -0.132742 
3 33.3693 48.2524 48.1102 0.637681 -0.0750957 -0.0853148 
4 34.2692 48.5959 48.3727 0.454097 -0.011322 -0.0358798 
5 35.1468 48.9505 48.6153 0.477261 -0.0452293 -0.207039 
6 35.6277 49.3056 47.8078 0.611145 0.0668367 -0.296929 
7 36.2992 49.59 48.5243 0.41372 -0.0695281 -0.0302588 
8 37.0709 50.0879 48.1934 0.130959 -0.0167576 -0.127187 
9 37.7748 49.4343 48.4737 0.427112 -0.417486 -0.0912552 
10 38.0618 50.2546 49.0232 0.302414 0.000450121 0.120654 
11 39.0001 50.1991 49.5024 0.338143 -0.0205631 0.0492735 
12 39.8805 50.3077 50.0211 0.195845 0.0656223 -0.112205 
13 40.6589 49.7129 50.4243 -0.217447 0.108247 -0.171494 
14 41.5176 49.187 50.4624 0.291203 -0.185302 -0.135297 
15 42.5165 49.1557 50.5788 0.378435 -0.0631893 0.270951 
16 43.2055 49.2942 49.8025 0.541868 -0.0925535 0.0877862 
17 43.9395 48.7329 50.121 0.05373 0.21939 0.112388 